<?xml version="1.0" encoding="UTF-8"?>

<!-- generated on 04/06/21 09:57:44 by Eclipse SUMO GUI Version 1.7.0
<configuration xmlns:xsi="http://www.w3.org/2001/XMLSchema-instance" xsi:noNamespaceSchemaLocation="http://sumo.dlr.de/xsd/sumoConfiguration.xsd">

    <input>
        <net-file value="cross.net.xml"/>
        <route-files value="cross.rou.xml"/>
        <additional-files value="cross.det.xml"/>
    </input>

    <output>
        <tripinfo-output value="tripinfo.xml"/>
    </output>

    <time>
        <begin value="0"/>
    </time>

    <report>
        <verbose value="true"/>
        <no-step-log value="true"/>
    </report>

    <traci_server>
        <remote-port value="63156"/>
    </traci_server>

</configuration>
-->

<tripinfos xmlns:xsi="http://www.w3.org/2001/XMLSchema-instance" xsi:noNamespaceSchemaLocation="http://sumo.dlr.de/xsd/tripinfo_file.xsd">
    <tripinfo id="right_2" depart="3.00" departLane="51o_0" departPos="5.10" departSpeed="0.00" departDelay="0.00" arrival="91.00" arrivalLane="52i_0" arrivalPos="10.00" arrivalSpeed="11.48" duration="88.00" routeLength="1015.10" waitingTime="0.00" waitingCount="0" stopTime="0.00" timeLoss="17.35" rerouteNo="0" devices="tripinfo_right_2" vType="typeWE" speedFactor="1.01" vaporized=""/>
    <tripinfo id="left_0" depart="0.00" departLane="52o_0" departPos="5.10" departSpeed="0.00" departDelay="0.00" arrival="116.00" arrivalLane="51i_0" arrivalPos="10.00" arrivalSpeed="12.22" duration="116.00" routeLength="1015.10" waitingTime="18.00" waitingCount="1" stopTime="0.00" timeLoss="48.11" rerouteNo="0" devices="tripinfo_left_0" vType="typeWE" speedFactor="1.06" vaporized=""/>
    <tripinfo id="left_1" depart="5.00" departLane="52o_0" departPos="5.10" departSpeed="0.00" departDelay="3.00" arrival="123.00" arrivalLane="51i_0" arrivalPos="10.00" arrivalSpeed="10.89" duration="118.00" routeLength="1015.10" waitingTime="13.00" waitingCount="1" stopTime="0.00" timeLoss="41.62" rerouteNo="0" devices="tripinfo_left_1" vType="typeWE" speedFactor="0.94" vaporized=""/>
    <tripinfo id="left_4" depart="10.00" departLane="52o_0" departPos="5.10" departSpeed="0.00" departDelay="0.00" arrival="125.00" arrivalLane="51i_0" arrivalPos="10.00" arrivalSpeed="11.51" duration="115.00" routeLength="1015.10" waitingTime="12.00" waitingCount="1" stopTime="0.00" timeLoss="45.23" rerouteNo="0" devices="tripinfo_left_4" vType="typeWE" speedFactor="1.03" vaporized=""/>
    <tripinfo id="left_6" depart="22.00" departLane="52o_0" departPos="5.10" departSpeed="0.00" departDelay="0.00" arrival="127.00" arrivalLane="51i_0" arrivalPos="10.00" arrivalSpeed="12.21" duration="105.00" routeLength="1015.10" waitingTime="0.00" waitingCount="0" stopTime="0.00" timeLoss="35.97" rerouteNo="0" devices="tripinfo_left_6" vType="typeWE" speedFactor="1.05" vaporized=""/>
    <tripinfo id="left_10" depart="49.00" departLane="52o_0" departPos="5.10" departSpeed="0.00" departDelay="0.00" arrival="134.00" arrivalLane="51i_0" arrivalPos="10.00" arrivalSpeed="12.49" duration="85.00" routeLength="1015.10" waitingTime="0.00" waitingCount="0" stopTime="0.00" timeLoss="19.44" rerouteNo="0" devices="tripinfo_left_10" vType="typeWE" speedFactor="1.09" vaporized=""/>
    <tripinfo id="right_7" depart="25.00" departLane="51o_0" departPos="5.10" departSpeed="0.00" departDelay="0.00" arrival="155.00" arrivalLane="52i_0" arrivalPos="10.00" arrivalSpeed="9.92" duration="130.00" routeLength="1015.10" waitingTime="23.00" waitingCount="1" stopTime="0.00" timeLoss="48.74" rerouteNo="0" devices="tripinfo_right_7" vType="typeWE" speedFactor="0.89" vaporized=""/>
    <tripinfo id="right_8" depart="31.00" departLane="51o_0" departPos="5.10" departSpeed="0.00" departDelay="0.00" arrival="157.00" arrivalLane="52i_0" arrivalPos="10.00" arrivalSpeed="10.35" duration="126.00" routeLength="1015.10" waitingTime="18.00" waitingCount="1" stopTime="0.00" timeLoss="49.04" rerouteNo="0" devices="tripinfo_right_8" vType="typeWE" speedFactor="0.94" vaporized=""/>
    <tripinfo id="right_14" depart="81.00" departLane="51o_0" departPos="5.10" departSpeed="0.00" departDelay="0.00" arrival="170.00" arrivalLane="52i_0" arrivalPos="10.00" arrivalSpeed="11.40" duration="89.00" routeLength="1015.10" waitingTime="0.00" waitingCount="0" stopTime="0.00" timeLoss="16.56" rerouteNo="0" devices="tripinfo_right_14" vType="typeWE" speedFactor="0.99" vaporized=""/>
    <tripinfo id="left_11" depart="67.00" departLane="52o_0" departPos="5.10" departSpeed="0.00" departDelay="0.00" arrival="179.00" arrivalLane="51i_0" arrivalPos="10.00" arrivalSpeed="11.38" duration="112.00" routeLength="1015.10" waitingTime="14.00" waitingCount="1" stopTime="0.00" timeLoss="42.15" rerouteNo="0" devices="tripinfo_left_11" vType="typeWE" speedFactor="1.03" vaporized=""/>
    <tripinfo id="left_13" depart="74.00" departLane="52o_0" departPos="5.10" departSpeed="0.00" departDelay="0.00" arrival="181.00" arrivalLane="51i_0" arrivalPos="10.00" arrivalSpeed="12.15" duration="107.00" routeLength="1015.10" waitingTime="9.00" waitingCount="1" stopTime="0.00" timeLoss="43.23" rerouteNo="0" devices="tripinfo_left_13" vType="typeWE" speedFactor="1.12" vaporized=""/>
    <tripinfo id="up_3" depart="4.00" departLane="53o_0" departPos="5.10" departSpeed="0.00" departDelay="0.00" arrival="209.00" arrivalLane="54i_0" arrivalPos="10.00" arrivalSpeed="12.36" duration="205.00" routeLength="1015.10" waitingTime="107.00" waitingCount="1" stopTime="0.00" timeLoss="138.41" rerouteNo="0" devices="tripinfo_up_3" vType="typeNS" speedFactor="1.08" vaporized=""/>
    <tripinfo id="up_5" depart="16.00" departLane="53o_0" departPos="5.10" departSpeed="0.00" departDelay="0.00" arrival="222.00" arrivalLane="54i_0" arrivalPos="10.00" arrivalSpeed="9.86" duration="206.00" routeLength="1015.10" waitingTime="95.00" waitingCount="1" stopTime="0.00" timeLoss="119.23" rerouteNo="0" devices="tripinfo_up_5" vType="typeNS" speedFactor="0.83" vaporized=""/>
    <tripinfo id="up_18" depart="103.00" departLane="53o_0" departPos="5.10" departSpeed="0.00" departDelay="0.00" arrival="224.00" arrivalLane="54i_0" arrivalPos="10.00" arrivalSpeed="10.35" duration="121.00" routeLength="1015.10" waitingTime="11.00" waitingCount="1" stopTime="0.00" timeLoss="43.82" rerouteNo="0" devices="tripinfo_up_18" vType="typeNS" speedFactor="0.94" vaporized=""/>
    <tripinfo id="up_19" depart="108.00" departLane="53o_0" departPos="5.10" departSpeed="0.00" departDelay="2.00" arrival="225.00" arrivalLane="54i_0" arrivalPos="10.00" arrivalSpeed="9.93" duration="117.00" routeLength="1015.10" waitingTime="8.00" waitingCount="1" stopTime="0.00" timeLoss="55.35" rerouteNo="0" devices="tripinfo_up_19" vType="typeNS" speedFactor="1.16" vaporized=""/>
    <tripinfo id="up_27" depart="135.00" departLane="53o_0" departPos="5.10" departSpeed="0.00" departDelay="0.00" arrival="227.00" arrivalLane="54i_0" arrivalPos="10.00" arrivalSpeed="10.77" duration="92.00" routeLength="1015.10" waitingTime="0.00" waitingCount="0" stopTime="0.00" timeLoss="16.53" rerouteNo="0" devices="tripinfo_up_27" vType="typeNS" speedFactor="0.95" vaporized=""/>
    <tripinfo id="left_20" depart="117.00" departLane="52o_0" departPos="5.10" departSpeed="0.00" departDelay="0.00" arrival="242.00" arrivalLane="51i_0" arrivalPos="10.00" arrivalSpeed="11.92" duration="125.00" routeLength="1015.10" waitingTime="23.00" waitingCount="1" stopTime="0.00" timeLoss="54.25" rerouteNo="0" devices="tripinfo_left_20" vType="typeWE" speedFactor="1.02" vaporized=""/>
    <tripinfo id="left_21" depart="122.00" departLane="52o_0" departPos="5.10" departSpeed="0.00" departDelay="2.00" arrival="244.00" arrivalLane="51i_0" arrivalPos="10.00" arrivalSpeed="11.47" duration="122.00" routeLength="1015.10" waitingTime="21.00" waitingCount="1" stopTime="0.00" timeLoss="51.22" rerouteNo="0" devices="tripinfo_left_21" vType="typeWE" speedFactor="1.01" vaporized=""/>
    <tripinfo id="left_22" depart="128.00" departLane="52o_0" departPos="5.10" departSpeed="0.00" departDelay="5.00" arrival="248.00" arrivalLane="51i_0" arrivalPos="10.00" arrivalSpeed="11.35" duration="120.00" routeLength="1015.10" waitingTime="16.00" waitingCount="1" stopTime="0.00" timeLoss="46.00" rerouteNo="0" devices="tripinfo_left_22" vType="typeWE" speedFactor="0.98" vaporized=""/>
    <tripinfo id="left_23" depart="134.00" departLane="52o_0" departPos="5.10" departSpeed="0.00" departDelay="9.00" arrival="254.00" arrivalLane="51i_0" arrivalPos="10.00" arrivalSpeed="10.05" duration="120.00" routeLength="1015.10" waitingTime="11.00" waitingCount="1" stopTime="0.00" timeLoss="39.09" rerouteNo="0" devices="tripinfo_left_23" vType="typeWE" speedFactor="0.89" vaporized=""/>
    <tripinfo id="left_28" depart="147.00" departLane="52o_0" departPos="5.10" departSpeed="0.00" departDelay="0.00" arrival="256.00" arrivalLane="51i_0" arrivalPos="10.00" arrivalSpeed="11.00" duration="109.00" routeLength="1015.10" waitingTime="1.00" waitingCount="1" stopTime="0.00" timeLoss="45.15" rerouteNo="0" devices="tripinfo_left_28" vType="typeWE" speedFactor="1.13" vaporized=""/>
    <tripinfo id="left_30" depart="159.00" departLane="52o_0" departPos="5.10" departSpeed="0.00" departDelay="0.00" arrival="257.00" arrivalLane="51i_0" arrivalPos="10.00" arrivalSpeed="10.73" duration="98.00" routeLength="1015.10" waitingTime="0.00" waitingCount="0" stopTime="0.00" timeLoss="37.37" rerouteNo="0" devices="tripinfo_left_30" vType="typeWE" speedFactor="1.18" vaporized=""/>
    <tripinfo id="down_9" depart="31.00" departLane="54o_0" departPos="5.10" departSpeed="0.00" departDelay="0.00" arrival="280.00" arrivalLane="53i_0" arrivalPos="10.00" arrivalSpeed="9.69" duration="249.00" routeLength="1015.10" waitingTime="140.00" waitingCount="1" stopTime="0.00" timeLoss="165.42" rerouteNo="0" devices="tripinfo_down_9" vType="typeNS" speedFactor="0.86" vaporized=""/>
    <tripinfo id="down_12" depart="72.00" departLane="54o_0" departPos="5.10" departSpeed="0.00" departDelay="0.00" arrival="282.00" arrivalLane="53i_0" arrivalPos="10.00" arrivalSpeed="10.11" duration="210.00" routeLength="1015.10" waitingTime="102.00" waitingCount="1" stopTime="0.00" timeLoss="141.53" rerouteNo="0" devices="tripinfo_down_12" vType="typeNS" speedFactor="1.05" vaporized=""/>
    <tripinfo id="down_15" depart="85.00" departLane="54o_0" departPos="5.10" departSpeed="0.00" departDelay="0.00" arrival="284.00" arrivalLane="53i_0" arrivalPos="10.00" arrivalSpeed="10.52" duration="199.00" routeLength="1015.10" waitingTime="91.00" waitingCount="1" stopTime="0.00" timeLoss="121.49" rerouteNo="0" devices="tripinfo_down_15" vType="typeNS" speedFactor="0.93" vaporized=""/>
    <tripinfo id="down_17" depart="98.00" departLane="54o_0" departPos="5.10" departSpeed="0.00" departDelay="0.00" arrival="286.00" arrivalLane="53i_0" arrivalPos="10.00" arrivalSpeed="11.06" duration="188.00" routeLength="1015.10" waitingTime="79.00" waitingCount="1" stopTime="0.00" timeLoss="111.64" rerouteNo="0" devices="tripinfo_down_17" vType="typeNS" speedFactor="0.94" vaporized=""/>
    <tripinfo id="down_25" depart="129.00" departLane="54o_0" departPos="5.10" departSpeed="0.00" departDelay="0.00" arrival="288.00" arrivalLane="53i_0" arrivalPos="10.00" arrivalSpeed="10.08" duration="159.00" routeLength="1015.10" waitingTime="46.00" waitingCount="1" stopTime="0.00" timeLoss="76.55" rerouteNo="0" devices="tripinfo_down_25" vType="typeNS" speedFactor="0.87" vaporized=""/>
    <tripinfo id="down_29" depart="149.00" departLane="54o_0" departPos="5.10" departSpeed="0.00" departDelay="0.00" arrival="290.00" arrivalLane="53i_0" arrivalPos="10.00" arrivalSpeed="10.88" duration="141.00" routeLength="1015.10" waitingTime="30.00" waitingCount="1" stopTime="0.00" timeLoss="63.51" rerouteNo="0" devices="tripinfo_down_29" vType="typeNS" speedFactor="0.93" vaporized=""/>
    <tripinfo id="right_16" depart="92.00" departLane="51o_0" departPos="5.10" departSpeed="0.00" departDelay="0.00" arrival="311.00" arrivalLane="52i_0" arrivalPos="10.00" arrivalSpeed="10.37" duration="219.00" routeLength="1015.10" waitingTime="111.00" waitingCount="1" stopTime="0.00" timeLoss="137.25" rerouteNo="0" devices="tripinfo_right_16" vType="typeWE" speedFactor="0.88" vaporized=""/>
    <tripinfo id="right_24" depart="127.00" departLane="51o_0" departPos="5.10" departSpeed="0.00" departDelay="1.00" arrival="316.00" arrivalLane="52i_0" arrivalPos="10.00" arrivalSpeed="9.63" duration="189.00" routeLength="1015.10" waitingTime="76.00" waitingCount="1" stopTime="0.00" timeLoss="102.14" rerouteNo="0" devices="tripinfo_right_24" vType="typeWE" speedFactor="0.83" vaporized=""/>
    <tripinfo id="right_26" depart="134.00" departLane="51o_0" departPos="5.10" departSpeed="0.00" departDelay="2.00" arrival="318.00" arrivalLane="52i_0" arrivalPos="10.00" arrivalSpeed="10.22" duration="184.00" routeLength="1015.10" waitingTime="71.00" waitingCount="1" stopTime="0.00" timeLoss="105.58" rerouteNo="0" devices="tripinfo_right_26" vType="typeWE" speedFactor="0.92" vaporized=""/>
    <tripinfo id="right_31" depart="171.00" departLane="51o_0" departPos="5.10" departSpeed="0.00" departDelay="0.00" arrival="320.00" arrivalLane="52i_0" arrivalPos="10.00" arrivalSpeed="10.64" duration="149.00" routeLength="1015.10" waitingTime="37.00" waitingCount="1" stopTime="0.00" timeLoss="86.60" rerouteNo="0" devices="tripinfo_right_31" vType="typeWE" speedFactor="1.15" vaporized=""/>
    <tripinfo id="right_32" depart="179.00" departLane="51o_0" departPos="5.10" departSpeed="0.00" departDelay="0.00" arrival="322.00" arrivalLane="52i_0" arrivalPos="10.00" arrivalSpeed="11.26" duration="143.00" routeLength="1015.10" waitingTime="31.00" waitingCount="1" stopTime="0.00" timeLoss="71.16" rerouteNo="0" devices="tripinfo_right_32" vType="typeWE" speedFactor="1.01" vaporized=""/>
    <tripinfo id="right_33" depart="184.00" departLane="51o_0" departPos="5.10" departSpeed="0.00" departDelay="2.00" arrival="323.00" arrivalLane="52i_0" arrivalPos="10.00" arrivalSpeed="10.96" duration="139.00" routeLength="1015.10" waitingTime="26.00" waitingCount="1" stopTime="0.00" timeLoss="78.10" rerouteNo="0" devices="tripinfo_right_33" vType="typeWE" speedFactor="1.17" vaporized=""/>
    <tripinfo id="right_36" depart="216.00" departLane="51o_0" departPos="5.10" departSpeed="0.00" departDelay="0.00" arrival="325.00" arrivalLane="52i_0" arrivalPos="10.00" arrivalSpeed="11.01" duration="109.00" routeLength="1015.10" waitingTime="0.00" waitingCount="0" stopTime="0.00" timeLoss="35.47" rerouteNo="0" devices="tripinfo_right_36" vType="typeWE" speedFactor="0.97" vaporized=""/>
    <tripinfo id="right_38" depart="227.00" departLane="51o_0" departPos="5.10" departSpeed="0.00" departDelay="0.00" arrival="327.00" arrivalLane="52i_0" arrivalPos="10.00" arrivalSpeed="11.38" duration="100.00" routeLength="1015.10" waitingTime="0.00" waitingCount="0" stopTime="0.00" timeLoss="34.86" rerouteNo="0" devices="tripinfo_right_38" vType="typeWE" speedFactor="1.10" vaporized=""/>
    <tripinfo id="left_34" depart="204.00" departLane="52o_0" departPos="5.10" departSpeed="0.00" departDelay="0.00" arrival="336.00" arrivalLane="51i_0" arrivalPos="10.00" arrivalSpeed="11.20" duration="132.00" routeLength="1015.10" waitingTime="31.00" waitingCount="1" stopTime="0.00" timeLoss="60.03" rerouteNo="0" devices="tripinfo_left_34" vType="typeWE" speedFactor="0.99" vaporized=""/>
    <tripinfo id="left_42" depart="253.00" departLane="52o_0" departPos="5.10" departSpeed="0.00" departDelay="0.00" arrival="339.00" arrivalLane="51i_0" arrivalPos="10.00" arrivalSpeed="12.40" duration="86.00" routeLength="1015.10" waitingTime="0.00" waitingCount="0" stopTime="0.00" timeLoss="20.17" rerouteNo="0" devices="tripinfo_left_42" vType="typeWE" speedFactor="1.09" vaporized=""/>
    <tripinfo id="left_44" depart="259.00" departLane="52o_0" departPos="5.10" departSpeed="0.00" departDelay="1.00" arrival="347.00" arrivalLane="51i_0" arrivalPos="10.00" arrivalSpeed="11.36" duration="88.00" routeLength="1015.10" waitingTime="0.00" waitingCount="0" stopTime="0.00" timeLoss="19.03" rerouteNo="0" devices="tripinfo_left_44" vType="typeWE" speedFactor="1.04" vaporized=""/>
    <tripinfo id="left_46" depart="265.00" departLane="52o_0" departPos="5.10" departSpeed="0.00" departDelay="3.00" arrival="354.00" arrivalLane="51i_0" arrivalPos="10.00" arrivalSpeed="11.37" duration="89.00" routeLength="1015.10" waitingTime="0.00" waitingCount="0" stopTime="0.00" timeLoss="17.14" rerouteNo="0" devices="tripinfo_left_46" vType="typeWE" speedFactor="1.00" vaporized=""/>
    <tripinfo id="down_37" depart="225.00" departLane="54o_0" departPos="5.10" departSpeed="0.00" departDelay="5.00" arrival="361.00" arrivalLane="53i_0" arrivalPos="10.00" arrivalSpeed="13.81" duration="136.00" routeLength="1015.10" waitingTime="43.00" waitingCount="1" stopTime="0.00" timeLoss="74.85" rerouteNo="0" devices="tripinfo_down_37" vType="typeNS" speedFactor="1.18" vaporized=""/>
    <tripinfo id="down_40" depart="241.00" departLane="54o_0" departPos="5.10" departSpeed="0.00" departDelay="0.00" arrival="368.00" arrivalLane="53i_0" arrivalPos="10.00" arrivalSpeed="11.86" duration="127.00" routeLength="1015.10" waitingTime="28.00" waitingCount="1" stopTime="0.00" timeLoss="57.17" rerouteNo="0" devices="tripinfo_down_40" vType="typeNS" speedFactor="1.03" vaporized=""/>
    <tripinfo id="down_43" depart="256.00" departLane="54o_0" departPos="5.10" departSpeed="0.00" departDelay="0.00" arrival="370.00" arrivalLane="53i_0" arrivalPos="10.00" arrivalSpeed="11.76" duration="114.00" routeLength="1015.10" waitingTime="12.00" waitingCount="1" stopTime="0.00" timeLoss="44.47" rerouteNo="0" devices="tripinfo_down_43" vType="typeNS" speedFactor="1.04" vaporized=""/>
    <tripinfo id="down_45" depart="261.00" departLane="54o_0" departPos="5.10" departSpeed="0.00" departDelay="3.00" arrival="371.00" arrivalLane="53i_0" arrivalPos="10.00" arrivalSpeed="12.07" duration="110.00" routeLength="1015.10" waitingTime="10.00" waitingCount="1" stopTime="0.00" timeLoss="44.38" rerouteNo="0" devices="tripinfo_down_45" vType="typeNS" speedFactor="1.09" vaporized=""/>
    <tripinfo id="down_53" depart="293.00" departLane="54o_0" departPos="5.10" departSpeed="0.00" departDelay="0.00" arrival="377.00" arrivalLane="53i_0" arrivalPos="10.00" arrivalSpeed="12.44" duration="84.00" routeLength="1015.10" waitingTime="0.00" waitingCount="0" stopTime="0.00" timeLoss="18.36" rerouteNo="0" devices="tripinfo_down_53" vType="typeNS" speedFactor="1.10" vaporized=""/>
    <tripinfo id="left_47" depart="281.00" departLane="52o_0" departPos="5.10" departSpeed="0.00" departDelay="0.00" arrival="402.00" arrivalLane="51i_0" arrivalPos="10.00" arrivalSpeed="10.28" duration="121.00" routeLength="1015.10" waitingTime="14.00" waitingCount="1" stopTime="0.00" timeLoss="41.77" rerouteNo="0" devices="tripinfo_left_47" vType="typeWE" speedFactor="0.90" vaporized=""/>
    <tripinfo id="left_48" depart="287.00" departLane="52o_0" departPos="5.10" departSpeed="0.00" departDelay="4.00" arrival="406.00" arrivalLane="51i_0" arrivalPos="10.00" arrivalSpeed="9.89" duration="119.00" routeLength="1015.10" waitingTime="10.00" waitingCount="1" stopTime="0.00" timeLoss="36.88" rerouteNo="0" devices="tripinfo_left_48" vType="typeWE" speedFactor="0.88" vaporized=""/>
    <tripinfo id="left_50" depart="292.00" departLane="52o_0" departPos="5.10" departSpeed="0.00" departDelay="5.00" arrival="409.00" arrivalLane="51i_0" arrivalPos="10.00" arrivalSpeed="9.92" duration="117.00" routeLength="1015.10" waitingTime="5.00" waitingCount="1" stopTime="0.00" timeLoss="33.05" rerouteNo="0" devices="tripinfo_left_50" vType="typeWE" speedFactor="0.85" vaporized=""/>
    <tripinfo id="left_51" depart="297.00" departLane="52o_0" departPos="5.10" departSpeed="0.00" departDelay="6.00" arrival="411.00" arrivalLane="51i_0" arrivalPos="10.00" arrivalSpeed="10.23" duration="114.00" routeLength="1015.10" waitingTime="4.00" waitingCount="1" stopTime="0.00" timeLoss="52.54" rerouteNo="0" devices="tripinfo_left_51" vType="typeWE" speedFactor="1.17" vaporized=""/>
    <tripinfo id="left_55" depart="302.00" departLane="52o_0" departPos="5.10" departSpeed="0.00" departDelay="6.00" arrival="413.00" arrivalLane="51i_0" arrivalPos="10.00" arrivalSpeed="11.07" duration="111.00" routeLength="1015.10" waitingTime="0.00" waitingCount="0" stopTime="0.00" timeLoss="38.70" rerouteNo="0" devices="tripinfo_left_55" vType="typeWE" speedFactor="1.00" vaporized=""/>
    <tripinfo id="left_56" depart="307.00" departLane="52o_0" departPos="5.10" departSpeed="0.00" departDelay="9.00" arrival="415.00" arrivalLane="51i_0" arrivalPos="10.00" arrivalSpeed="10.37" duration="108.00" routeLength="1015.10" waitingTime="0.00" waitingCount="0" stopTime="0.00" timeLoss="27.75" rerouteNo="0" devices="tripinfo_left_56" vType="typeWE" speedFactor="0.90" vaporized=""/>
    <tripinfo id="left_57" depart="316.00" departLane="52o_0" departPos="5.10" departSpeed="0.00" departDelay="1.00" arrival="416.00" arrivalLane="51i_0" arrivalPos="10.00" arrivalSpeed="10.91" duration="100.00" routeLength="1015.10" waitingTime="0.00" waitingCount="0" stopTime="0.00" timeLoss="37.22" rerouteNo="0" devices="tripinfo_left_57" vType="typeWE" speedFactor="1.14" vaporized=""/>
    <tripinfo id="right_39" depart="239.00" departLane="51o_0" departPos="5.10" departSpeed="0.00" departDelay="0.00" arrival="433.00" arrivalLane="52i_0" arrivalPos="10.00" arrivalSpeed="10.59" duration="194.00" routeLength="1015.10" waitingTime="87.00" waitingCount="1" stopTime="0.00" timeLoss="114.50" rerouteNo="0" devices="tripinfo_right_39" vType="typeWE" speedFactor="0.90" vaporized=""/>
    <tripinfo id="right_52" depart="292.00" departLane="51o_0" departPos="5.10" departSpeed="0.00" departDelay="0.00" arrival="435.00" arrivalLane="52i_0" arrivalPos="10.00" arrivalSpeed="11.16" duration="143.00" routeLength="1015.10" waitingTime="37.00" waitingCount="1" stopTime="0.00" timeLoss="72.42" rerouteNo="0" devices="tripinfo_right_52" vType="typeWE" speedFactor="1.02" vaporized=""/>
    <tripinfo id="right_54" depart="297.00" departLane="51o_0" departPos="5.10" departSpeed="0.00" departDelay="1.00" arrival="437.00" arrivalLane="52i_0" arrivalPos="10.00" arrivalSpeed="11.27" duration="140.00" routeLength="1015.10" waitingTime="34.00" waitingCount="1" stopTime="0.00" timeLoss="68.12" rerouteNo="0" devices="tripinfo_right_54" vType="typeWE" speedFactor="1.00" vaporized=""/>
    <tripinfo id="right_62" depart="352.00" departLane="51o_0" departPos="5.10" departSpeed="0.00" departDelay="0.00" arrival="441.00" arrivalLane="52i_0" arrivalPos="10.00" arrivalSpeed="12.05" duration="89.00" routeLength="1015.10" waitingTime="0.00" waitingCount="0" stopTime="0.00" timeLoss="18.10" rerouteNo="0" devices="tripinfo_right_62" vType="typeWE" speedFactor="1.02" vaporized=""/>
    <tripinfo id="up_35" depart="212.00" departLane="53o_0" departPos="5.10" departSpeed="0.00" departDelay="0.00" arrival="459.00" arrivalLane="54i_0" arrivalPos="10.00" arrivalSpeed="11.37" duration="247.00" routeLength="1015.10" waitingTime="147.00" waitingCount="1" stopTime="0.00" timeLoss="176.68" rerouteNo="0" devices="tripinfo_up_35" vType="typeNS" speedFactor="1.02" vaporized=""/>
    <tripinfo id="up_41" depart="248.00" departLane="53o_0" departPos="5.10" departSpeed="0.00" departDelay="0.00" arrival="463.00" arrivalLane="54i_0" arrivalPos="10.00" arrivalSpeed="11.11" duration="215.00" routeLength="1015.10" waitingTime="113.00" waitingCount="1" stopTime="0.00" timeLoss="140.47" rerouteNo="0" devices="tripinfo_up_41" vType="typeNS" speedFactor="0.96" vaporized=""/>
    <tripinfo id="up_49" depart="290.00" departLane="53o_0" departPos="5.10" departSpeed="0.00" departDelay="6.00" arrival="471.00" arrivalLane="54i_0" arrivalPos="10.00" arrivalSpeed="9.62" duration="181.00" routeLength="1015.10" waitingTime="70.00" waitingCount="1" stopTime="0.00" timeLoss="96.33" rerouteNo="0" devices="tripinfo_up_49" vType="typeNS" speedFactor="0.85" vaporized=""/>
    <tripinfo id="up_59" depart="344.00" departLane="53o_0" departPos="5.10" departSpeed="0.00" departDelay="0.00" arrival="473.00" arrivalLane="54i_0" arrivalPos="10.00" arrivalSpeed="10.21" duration="129.00" routeLength="1015.10" waitingTime="20.00" waitingCount="1" stopTime="0.00" timeLoss="54.65" rerouteNo="0" devices="tripinfo_up_59" vType="typeNS" speedFactor="0.97" vaporized=""/>
    <tripinfo id="up_60" depart="349.00" departLane="53o_0" departPos="5.10" departSpeed="0.00" departDelay="2.00" arrival="474.00" arrivalLane="54i_0" arrivalPos="10.00" arrivalSpeed="10.39" duration="125.00" routeLength="1015.10" waitingTime="17.00" waitingCount="1" stopTime="0.00" timeLoss="59.07" rerouteNo="0" devices="tripinfo_up_60" vType="typeNS" speedFactor="1.08" vaporized=""/>
    <tripinfo id="left_58" depart="343.00" departLane="52o_0" departPos="5.10" departSpeed="0.00" departDelay="0.00" arrival="490.00" arrivalLane="51i_0" arrivalPos="10.00" arrivalSpeed="11.97" duration="147.00" routeLength="1015.10" waitingTime="45.00" waitingCount="1" stopTime="0.00" timeLoss="76.66" rerouteNo="0" devices="tripinfo_left_58" vType="typeWE" speedFactor="1.02" vaporized=""/>
    <tripinfo id="left_61" depart="350.00" departLane="52o_0" departPos="5.10" departSpeed="0.00" departDelay="0.00" arrival="491.00" arrivalLane="51i_0" arrivalPos="10.00" arrivalSpeed="11.82" duration="141.00" routeLength="1015.10" waitingTime="43.00" waitingCount="1" stopTime="0.00" timeLoss="77.05" rerouteNo="0" devices="tripinfo_left_61" vType="typeWE" speedFactor="1.12" vaporized=""/>
    <tripinfo id="left_63" depart="357.00" departLane="52o_0" departPos="5.10" departSpeed="0.00" departDelay="0.00" arrival="496.00" arrivalLane="51i_0" arrivalPos="10.00" arrivalSpeed="11.39" duration="139.00" routeLength="1015.10" waitingTime="34.00" waitingCount="1" stopTime="0.00" timeLoss="65.80" rerouteNo="0" devices="tripinfo_left_63" vType="typeWE" speedFactor="0.99" vaporized=""/>
    <tripinfo id="left_64" depart="362.00" departLane="52o_0" departPos="5.10" departSpeed="0.00" departDelay="3.00" arrival="500.00" arrivalLane="51i_0" arrivalPos="10.00" arrivalSpeed="11.00" duration="138.00" routeLength="1015.10" waitingTime="32.00" waitingCount="1" stopTime="0.00" timeLoss="61.32" rerouteNo="0" devices="tripinfo_left_64" vType="typeWE" speedFactor="0.94" vaporized=""/>
    <tripinfo id="left_66" depart="372.00" departLane="52o_0" departPos="5.10" departSpeed="0.00" departDelay="0.00" arrival="503.00" arrivalLane="51i_0" arrivalPos="10.00" arrivalSpeed="10.63" duration="131.00" routeLength="1015.10" waitingTime="23.00" waitingCount="1" stopTime="0.00" timeLoss="52.19" rerouteNo="0" devices="tripinfo_left_66" vType="typeWE" speedFactor="0.91" vaporized=""/>
    <tripinfo id="left_67" depart="377.00" departLane="52o_0" departPos="5.10" departSpeed="0.00" departDelay="1.00" arrival="505.00" arrivalLane="51i_0" arrivalPos="10.00" arrivalSpeed="10.32" duration="128.00" routeLength="1015.10" waitingTime="19.00" waitingCount="1" stopTime="0.00" timeLoss="49.87" rerouteNo="0" devices="tripinfo_left_67" vType="typeWE" speedFactor="0.91" vaporized=""/>
    <tripinfo id="left_70" depart="402.00" departLane="52o_0" departPos="5.10" departSpeed="0.00" departDelay="0.00" arrival="507.00" arrivalLane="51i_0" arrivalPos="10.00" arrivalSpeed="11.03" duration="105.00" routeLength="1015.10" waitingTime="0.00" waitingCount="0" stopTime="0.00" timeLoss="34.87" rerouteNo="0" devices="tripinfo_left_70" vType="typeWE" speedFactor="1.02" vaporized=""/>
    <tripinfo id="left_71" depart="407.00" departLane="52o_0" departPos="5.10" departSpeed="0.00" departDelay="1.00" arrival="509.00" arrivalLane="51i_0" arrivalPos="10.00" arrivalSpeed="11.40" duration="102.00" routeLength="1015.10" waitingTime="0.00" waitingCount="0" stopTime="0.00" timeLoss="28.10" rerouteNo="0" devices="tripinfo_left_71" vType="typeWE" speedFactor="0.97" vaporized=""/>
    <tripinfo id="left_72" depart="414.00" departLane="52o_0" departPos="5.10" departSpeed="0.00" departDelay="0.00" arrival="511.00" arrivalLane="51i_0" arrivalPos="10.00" arrivalSpeed="11.05" duration="97.00" routeLength="1015.10" waitingTime="0.00" waitingCount="0" stopTime="0.00" timeLoss="20.39" rerouteNo="0" devices="tripinfo_left_72" vType="typeWE" speedFactor="0.94" vaporized=""/>
    <tripinfo id="right_65" depart="363.00" departLane="51o_0" departPos="5.10" departSpeed="0.00" departDelay="0.00" arrival="526.00" arrivalLane="52i_0" arrivalPos="10.00" arrivalSpeed="10.15" duration="163.00" routeLength="1015.10" waitingTime="55.00" waitingCount="1" stopTime="0.00" timeLoss="81.87" rerouteNo="0" devices="tripinfo_right_65" vType="typeWE" speedFactor="0.88" vaporized=""/>
    <tripinfo id="right_68" depart="389.00" departLane="51o_0" departPos="5.10" departSpeed="0.00" departDelay="0.00" arrival="528.00" arrivalLane="52i_0" arrivalPos="10.00" arrivalSpeed="10.51" duration="139.00" routeLength="1015.10" waitingTime="32.00" waitingCount="1" stopTime="0.00" timeLoss="69.98" rerouteNo="0" devices="tripinfo_right_68" vType="typeWE" speedFactor="1.04" vaporized=""/>
    <tripinfo id="right_69" depart="402.00" departLane="51o_0" departPos="5.10" departSpeed="0.00" departDelay="0.00" arrival="530.00" arrivalLane="52i_0" arrivalPos="10.00" arrivalSpeed="10.92" duration="128.00" routeLength="1015.10" waitingTime="23.00" waitingCount="1" stopTime="0.00" timeLoss="57.69" rerouteNo="0" devices="tripinfo_right_69" vType="typeWE" speedFactor="1.02" vaporized=""/>